LAMMPS (16 Mar 2018)
dimension       2
boundary 		p p p
units           lj
atom_style      atomic

lattice 		none 1
region          box block 0 100 0 100 -0.5 0.5
create_box 		1 box
Created orthogonal box = (0 0 -0.5) to (100 100 0.5)
  4 by 4 by 1 MPI processor grid
region 			particles block 1 99 1 99 -0.005 0.005
create_atoms	1 random 10000 352461 particles
Created 10000 atoms
  Time spent = 0.00112719 secs
mass            1 1.0

velocity        all create 1 54611
timestep		0.001

pair_style      nm/cut 1.0
pair_coeff      1 1 1.0 1.0 12 6 1.0
pair_modify		shift yes

neighbor        0.3 bin
neigh_modify    every 2 delay 0 check yes


fix 			2d all enforce2d
min_style 		fire
minimize 		1.0e-18 1.0e-18 10000000000 10000000000
WARNING: Using 'neigh_modify every 1 delay 0 check yes' setting during minimization (../min.cpp:168)
Neighbor list info ...
  update every 1 steps, delay 0 steps, check yes
  max neighbors/atom: 2000, page size: 100000
  master list distance cutoff = 1.3
  ghost atom cutoff = 1.3
  binsize = 0.65, bins = 154 154 2
  1 neighbor lists, perpetual/occasional/extra = 1 0 0
  (1) pair nm/cut, perpetual
      attributes: half, newton on
      pair build: half/bin/atomonly/newton
      stencil: half/bin/2d/newton
      bin: standard
Per MPI rank memory allocation (min/avg/max) = 3.058 | 3.059 | 3.059 Mbytes
Step Temp E_pair E_mol TotEng Press 
       0            0 2.2297575e+18            0 2.2297575e+18 1.3378545e+19 
    8697 1.7856262e-17 1.4680479e-16            0 1.6465927e-16 2.2629905e-08 
Loop time of 5.25095 on 16 procs for 8697 steps with 10000 atoms

87.4% CPU use with 16 MPI tasks x no OpenMP threads

Minimization stats:
  Stopping criterion = energy tolerance
  Energy initial, next-to-last, final = 
     2.22975750538e+18  1.46804790546e-16  1.46804790546e-16
  Force two-norm initial, final = 2.56499e+25 4.64572e-07
  Force max component initial, final = 1.81307e+25 3.45778e-08
  Final line search alpha, max atom move = 0 0
  Iterations, force evaluations = 8697 8697

MPI task timing breakdown:
Section |  min time  |  avg time  |  max time  |%varavg| %total
---------------------------------------------------------------
Pair    | 3.027      | 3.7741     | 4.5185     |  22.3 | 71.87
Neigh   | 0.019654   | 0.021739   | 0.024629   |   1.1 |  0.41
Comm    | 0.15733    | 0.80424    | 1.6281     |  44.2 | 15.32
Output  | 0          | 0          | 0          |   0.0 |  0.00
Modify  | 0.026193   | 0.029378   | 0.033441   |   1.4 |  0.56
Other   |            | 0.6215     |            |       | 11.84

Nlocal:    625 ave 674 max 587 min
Histogram: 4 1 1 1 3 0 2 1 2 1
Nghost:    122.125 ave 156 max 90 min
Histogram: 1 1 1 4 3 2 1 0 2 1
Neighs:    1652.62 ave 1886 max 1470 min
Histogram: 4 0 3 1 2 0 2 2 0 2

Total # of neighbors = 26442
Ave neighs/atom = 2.6442
Neighbor list builds = 152
Dangerous builds = 0

fix             1 all nvt temp 1 1 0.1
dump            1 all xyz 1000 atom.*.xyz


thermo          100
run             200000
Per MPI rank memory allocation (min/avg/max) = 3.074 | 3.074 | 3.075 Mbytes
Step Temp E_pair E_mol TotEng Press 
    8697 1.7856262e-17 1.4680479e-16            0 1.6465927e-16 2.2629905e-08 
    8700 1.7944076e-17 1.4600543e-16            0 1.6394771e-16 2.2615279e-08 
    8800 2.5519043e-17 1.4254153e-16            0 1.6805803e-16 2.2093637e-08 
    8900 3.8713522e-17 1.408651e-16            0 1.7957475e-16 2.1462753e-08 
    9000 5.9747194e-17 1.3580248e-16            0 1.955437e-16 2.0674626e-08 
    9100 9.3051451e-17 1.3228307e-16            0 2.2532522e-16 1.9685051e-08 
    9200 1.4598917e-16 1.2516654e-16            0 2.7114112e-16 1.8463029e-08 
    9300 2.3028179e-16 1.2061463e-16            0 3.5087339e-16 1.6936259e-08 
    9400 3.6548101e-16 1.104894e-16            0 4.7593386e-16 1.4988135e-08 
    9500 5.8336323e-16 1.025513e-16            0 6.858562e-16 1.2555913e-08 
    9600 9.367686e-16 9.1748831e-17            0 1.0284238e-15 9.4932728e-09 
    9700 1.5136261e-15 8.4265928e-17            0 1.5977407e-15 5.6145116e-09 
    9800 2.4610245e-15 5.2002846e-17            0 2.5127813e-15 1.1552009e-09 
    9900 4.0313728e-15 1.3000712e-17            0 4.0439703e-15 2.9098174e-10 
   10000 6.6609742e-15 7.2164497e-18            0 6.6675246e-15 2.7527512e-10 
   10100 1.1096063e-14 4.8183679e-18            0 1.1099771e-14 2.6038737e-10 
   10200 1.8627062e-14 3.519407e-18            0 1.8628718e-14 2.6323297e-10 
   10300 3.1498386e-14 2.409184e-18            0 3.1497645e-14 2.4648527e-10 
   10400 5.3635448e-14 2.3092639e-18            0 5.3632394e-14 2.0247791e-10 
   10500 9.193857e-14 1.6209256e-18            0 9.1930997e-14 1.9785653e-10 
   10600 1.5860031e-13 1.7319479e-18            0 1.5858618e-13 2.0312224e-10 
   10700 2.752729e-13 9.7699626e-19            0 2.7524635e-13 1.8915894e-10 
   10800 4.8059094e-13 1.7985613e-18            0 4.8054468e-13 2.6586171e-10 
   10900 8.4382089e-13 2.9087843e-18            0 8.4373941e-13 3.4112848e-10 
   11000 1.4897257e-12 2.3869795e-18            0 1.4895792e-12 3.0203947e-10 
   11100 2.6440307e-12 2.5646152e-18            0 2.6437688e-12 3.2344434e-10 
   11200 4.7169422e-12 5.7620575e-18            0 4.7164762e-12 4.2272523e-10 
   11300 8.4571549e-12 5.8952843e-18            0 8.4563151e-12 4.4622447e-10 
   11400 1.5236919e-11 7.6716411e-18            0 1.5235403e-11 5.1646281e-10 
   11500 2.7581821e-11 1.388889e-17            0 2.7579077e-11 7.5200273e-10 
   11600 5.0159077e-11 1.513234e-17            0 5.0154076e-11 5.6955176e-10 
   11700 9.1627809e-11 1.075362e-16            0 9.1618754e-11 9.931045e-10 
   11800 1.6811654e-10 3.5761394e-16            0 1.6810009e-10 2.3668048e-09 
   11900 3.0978208e-10 6.8886008e-16            0 3.0975179e-10 4.078312e-09 
   12000 5.7322333e-10 1.4157675e-15            0 5.7316742e-10 7.4388872e-09 
   12100 1.0650626e-09  2.01551e-15            0 1.0649581e-09 9.6510013e-09 
   12200 1.9868304e-09 4.9943838e-14            0 1.9866816e-09 2.8742661e-08 
   12300 3.7208841e-09 2.1373515e-13            0 3.7207257e-09 7.934325e-08 
   12400 6.9955879e-09 3.6655995e-13            0 6.9952549e-09 1.3841466e-07 
   12500 1.3201951e-08 1.0426752e-12            0 1.3201674e-08 2.5661063e-07 
   12600 2.5005311e-08 3.6996483e-12            0 2.5006511e-08 4.4883991e-07 
   12700 4.754211e-08 4.1366986e-12            0 4.7541493e-08 7.183492e-07 
   12800 9.0686742e-08 3.0458555e-11            0 9.0708132e-08 1.6313641e-06 
   12900 1.7354394e-07 1.1464835e-10            0 1.7364123e-07 3.7706897e-06 
   13000 3.3322304e-07 3.0923403e-10            0 3.3349895e-07 7.5656624e-06 
   13100 6.4191238e-07 7.6630523e-10            0 6.4261449e-07 1.4181321e-05 
   13200 1.2380463e-06 3.8036035e-09            0 1.2417261e-06 2.6864297e-05 
   13300 2.3966707e-06 8.4669823e-09            0 2.4048981e-06 4.9654229e-05 
   13400 4.6591141e-06 1.4846887e-08            0 4.6734951e-06 7.8901842e-05 
   13500 9.0871575e-06 2.7045181e-08            0 9.113294e-06 0.00012806893 
   13600 1.7765369e-05 6.0843941e-08            0 1.7824437e-05 0.00020875959 
   13700 3.478879e-05 1.7375294e-07            0 3.4959064e-05 0.00039147226 
   13800 6.799851e-05 6.2551755e-07            0 6.8617227e-05 0.00072422974 
   13900 0.00013333076 1.522944e-06            0 0.00013484037   0.00130879 
   14000 0.00026135587 3.8521031e-06            0 0.00026518184 0.0023336919 
   14100 0.00051288979 9.1607973e-06            0 0.00052199929 0.0041988046 
   14200 0.0010076416 2.1165293e-05            0 0.0010287061   0.00756197 
   14300  0.001981072 4.6561937e-05            0 0.0020274358  0.013164993 
   14400 0.0038903896 0.00011002943            0   0.00400003  0.023148022 
   14500 0.0075950863 0.00027989645            0 0.0078742232  0.041048952 
   14600  0.014777036 0.00064968692            0  0.015425246  0.072132164 
   14700  0.028624923  0.001474602            0  0.030096663   0.12539477 
   14800  0.054968315 0.0034019116            0   0.05836473   0.22105023 
   14900   0.10511971 0.0069228707            0   0.11203207   0.37733927 
   15000   0.19710516  0.014361321            0   0.21144677   0.64429996 
   15100   0.35925623  0.027612738            0   0.38683304    1.0692928 
   15200   0.61874512  0.049494136            0   0.66817738    1.7120721 
   15300   0.94956898  0.085038053            0    1.0345121    2.5653668 
   15400    1.1835961   0.12052287            0    1.3040006     3.295333 
   15500    1.0748833   0.13797926            0    1.2127551    3.4797156 
   15600   0.89208579   0.13786126            0    1.0298578    3.3488034 
   15700   0.89654455   0.14411004            0    1.0405649     3.431045 
   15800    1.0497947   0.16203842            0    1.2117281    3.8038995 
   15900    1.1104992   0.17967076            0    1.2900589    4.0731725 
   16000   0.98814626   0.18425291            0    1.1723004    4.0348318 
   16100   0.90535322    0.1797127            0    1.0849754    3.9268494 
   16200    0.9639496   0.18572437            0    1.1495776    4.0692671 
   16300    1.0752206   0.19841273            0    1.2735258    4.3556432 
   16400    1.0575967   0.20850435            0    1.2659953     4.476325 
   16500   0.95986648   0.19999596            0    1.1597664    4.3287572 
   16600   0.92941763   0.20247226            0    1.1317969     4.352037 
   16700     1.011275   0.21178769            0    1.2229616    4.5499816 
   16800     1.066234   0.23690025            0    1.3030276    4.8969772 
   16900    1.0229161   0.23880325            0    1.2616171    4.9094922 
   17000   0.94892291    0.2361807            0    1.1850087    4.8451564 
   17100   0.95630597   0.23998092            0    1.1961913    4.9167921 
   17200    1.0216994   0.26052574            0    1.2821229    5.2328605 
   17300     1.054915   0.27012121            0    1.3249307    5.4205881 
   17400   0.99362501    0.2784787            0    1.2720043    5.4721726 
   17500   0.95084349   0.28163911            0    1.2323875    5.4874291 
   17600   0.98330874    0.2912629            0    1.2744733    5.6433749 
   17700     1.033205   0.31206892            0    1.3451706    5.9375649 
   17800    1.0309736    0.3227964            0    1.3536669     6.091639 
   17900   0.97695034   0.33159059            0    1.3084432    6.1635852 
   18000   0.96413464   0.33836671            0    1.3024049    6.2276349 
   18100   0.99328616   0.36448285            0    1.3576697    6.5382797 
   18200    1.0288346   0.39272316            0    1.4214549    6.8814175 
   18300    1.0197547   0.41452652            0    1.4341793    7.1138017 
   18400   0.98161046   0.43100028            0    1.4125126     7.261722 
   18500   0.97916413   0.43766044            0    1.4167266    7.3471532 
   18600    0.9986126   0.46348299            0    1.4619957    7.6340874 
   18700    1.0233403   0.48682469            0    1.5100626    7.9148221 
   18800    1.0162779   0.50186408            0    1.5180404    8.0969017 
   18900   0.99283083   0.50931473            0    1.5020463    8.1591628 
   19000   0.97822482   0.52418067            0    1.5023077    8.3063866 
   19100    1.0014197   0.53840173            0    1.5397213    8.5158997 
   19200    1.0237049   0.55813954            0    1.5817421    8.7435944 
   19300    1.0071615   0.57900688            0    1.5860676    8.9459066 
   19400   0.98899501   0.58159032            0    1.5704864    8.9925025 
   19500   0.98041382   0.59862844            0    1.5789442    9.1430345 
   19600   0.99567365    0.6251562            0    1.6207303    9.4380042 
   19700    1.0140838   0.65326835            0    1.6672508    9.7281866 
   19800    1.0080451   0.67570224            0    1.6836465    9.9366148 
   19900   0.98958332   0.69078938            0    1.6802737    10.062599 
   20000   0.98107595   0.71539738            0    1.6963752    10.297809 
   20100    1.0033027    0.7380147            0    1.7412171    10.523734 
   20200    1.0156082   0.76992044            0    1.7854271    10.852398 
   20300    1.0061218   0.80147935            0    1.8075005    11.114474 
   20400   0.99757217   0.81139725            0    1.8088697    11.233841 
   20500   0.98647925   0.82907349            0    1.8154541    11.379501 
   20600    1.0067512   0.84174968            0    1.8484002     11.52876 
   20700    1.0076939   0.87838897            0     1.885982    11.890911 
   20800    1.0257818   0.88265342            0    1.9083327    11.922828 
   20900    1.0104682   0.88099162            0    1.8913587    11.912724 
   21000   0.98276708   0.87427831            0    1.8569471    11.845891 
   21100   0.97651419   0.87504331            0    1.8514598    11.825136 
   21200    1.0120238   0.86450709            0    1.8764297     11.77465 
   21300    1.0065194   0.87852507            0    1.8849439    11.897693 
   21400    1.0129234   0.85253094            0    1.8653531    11.674819 
   21500    1.0015292   0.82531125            0    1.8267403    11.431821 
   21600   0.99206696   0.80439536            0    1.7963631    11.179984 
   21700   0.99336087   0.78616676            0    1.7794283     10.99413 
   21800    0.9949174   0.76846725            0    1.7632852    10.824499 
   21900    1.0094763   0.73465899            0    1.7440343    10.525081 
   22000    1.0105624   0.70251194            0    1.7129733    10.205275 
   22100   0.98867965   0.68864923            0      1.67723    10.026415 
   22200   0.98870488   0.66984621            0    1.6584522    9.8415041 
   22300    1.0108061   0.63994145            0    1.6506465    9.5662786 
   22400    1.0057971   0.62555699            0    1.6312535     9.403186 
   22500    1.0027985   0.59899153            0    1.6016898    9.0996224 
   22600   0.98722814   0.57780489            0    1.5649343    8.8630846 
   22700    0.9887491   0.55627761            0    1.5449278    8.6468092 
   22800    1.0082722   0.53264848            0    1.5408198    8.4062904 
   22900    1.0099718   0.51327396            0    1.5231448    8.1991924 
   23000   0.99946088   0.49543248            0    1.4947934    7.9781533 
   23100   0.99981515   0.47330253            0    1.4730177    7.7516779 
   23200    1.0009339   0.45694516            0     1.457779      7.56622 
   23300    0.9998644   0.44983907            0    1.4496035    7.4741085 
   23400    1.0060324   0.43741023            0     1.443342    7.3010575 
   23500   0.99705138   0.42736668            0    1.4243184    7.1648454 
   23600    0.9914882    0.4109607            0    1.4023497    6.9709481 
   23700   0.98469951   0.40503754            0    1.3896386    6.8922976 
   23800    1.0033896   0.39134728            0    1.3946365    6.7536191 
   23900    1.0088207     0.388359            0    1.3970789    6.7155573 
   24000    1.0029262   0.38030337            0    1.3831293    6.5889912 
   24100   0.98702653   0.37575555            0    1.3626834    6.5055102 
   24200   0.99659736   0.36273958            0    1.3592373      6.34861 
   24300   0.99475987   0.36780619            0    1.3624666    6.3764848 
   24400    1.0071906   0.35509228            0    1.3621822    6.2533574 
   24500   0.99178949   0.35625779            0    1.3479481    6.2264461 
   24600   0.99524523   0.34618169            0    1.3413274    6.1082979 
   24700   0.99814762   0.34364621            0     1.341694    6.0761181 
   24800    1.0071039   0.33721201            0    1.3442152    6.0000097 
   24900    1.0051835   0.33429076            0    1.3393738    5.9540895 
   25000   0.99908307   0.33404836            0    1.3330315    5.9192441 
   25100   0.99749688   0.33115156            0    1.3285487    5.8607094 
   25200   0.99539581   0.32989177            0     1.325188     5.839446 
   25300    1.0008622   0.32877351            0    1.3295356    5.8126991 
   25400    1.0036503   0.33005864            0    1.3336086    5.8167618 
   25500    1.0091046   0.32143071            0    1.3304344    5.7360155 
   25600   0.99546947   0.32301709            0     1.318387    5.7180177 
   25700   0.98628725   0.32750376            0    1.3136924    5.7358872 
   25800    1.0086726   0.31370495            0    1.3222766    5.6187843 
   25900   0.99738654   0.32843799            0    1.3257248    5.7306959 
   26000   0.99721883   0.32368231            0    1.3208014    5.6518942 
   26100   0.98691696   0.32460378            0     1.311422    5.6559765 
   26200     1.007008   0.30708799            0    1.3139953    5.4929622 
   26300   0.99828748   0.31562577            0    1.3138134    5.5774602 
   26400     1.004761   0.31922548            0     1.323886    5.5752134 
   26500    1.0074312   0.32107522            0    1.3284057    5.6017756 
   26600   0.99364578   0.32979626            0    1.3233427     5.666776 
   26700   0.99646522    0.3336209            0    1.3299865    5.6668963 
   26800   0.99862529   0.34487233            0    1.3433978    5.7898197 
   26900     1.020919   0.33837622            0    1.3591931    5.7514587 
   27000    1.0014068    0.3546993            0     1.356006    5.8801972 
   27100   0.98084843   0.37435915            0    1.3551095    6.0069971 
   27200    1.0109162   0.36389269            0    1.3747078    5.9324207 
   27300    1.0056446   0.37779431            0    1.3833384      6.08706 
   27400    1.0035082   0.38509982            0    1.3885076    6.0914327 
   27500    1.0021804    0.3864491            0    1.3885293    6.1153898 
   27600   0.98041729   0.40998132            0    1.3903006    6.3301263 
   27700   0.98913846   0.42931021            0    1.4183498    6.4900516 
   27800    1.0146058   0.43357613            0    1.4480805    6.5578822 
   27900     1.005064   0.44203561            0    1.4469991    6.6455559 
   28000   0.99646421   0.43958141            0     1.435946    6.6203521 
   28100   0.98417211   0.45168971            0    1.4357634    6.7314949 
   28200   0.97967756    0.4765708            0    1.4561504    6.9311869 
   28300    1.0342703   0.45945613            0     1.493623    6.8399371 
   28400    1.0072915   0.48426155            0    1.4914523    7.0500941 
   28500   0.99615985   0.47216186            0    1.4682221     6.937112 
   28600   0.98845138    0.4694883            0    1.4578408    6.8868718 
   28700   0.99811343   0.47069917            0    1.4687128     6.939773 
   28800   0.99706089   0.49972306            0    1.4966842     7.182701 
   28900    1.0124048   0.49864909            0    1.5109527    7.2108421 
   29000    1.0006198   0.49547443            0    1.4959941    7.1805699 
   29100   0.97993947    0.4983681            0    1.4782096     7.200672 
   29200   0.98547358    0.4886112            0    1.4739862    7.1265193 
   29300    1.0045301   0.48134459            0    1.4857742    7.0681012 
   29400    1.0159295    0.4802022            0    1.4960301    7.0780874 
   29500   0.99620914   0.49312692            0    1.4892364     7.179502 
   29600    0.9878956   0.49396416            0     1.481761    7.1803001 
   29700    1.0042892   0.47901139            0    1.4832001     7.096507 
   29800    1.0009547   0.47741534            0      1.47827    7.0828474 
   29900    1.0080104   0.46210823            0    1.4700178    6.9631462 
   30000   0.99126155   0.46194769            0    1.4531101    6.9755757 
   30100    1.0014107   0.45294523            0    1.4542558    6.8961021 
   30200    1.0005516   0.46072236            0    1.4611739    6.9501236 
   30300    1.0073101   0.45673283            0    1.4639422    6.9451318 
   30400    0.9912767    0.4685266            0    1.4597042      7.04224 
   30500     1.011769   0.44754161            0    1.4592095    6.8915816 
   30600    0.9930887   0.45867239            0    1.4516618    6.9738601 
   30700    1.0049886   0.44047442            0    1.4453625    6.8253752 
   30800   0.98999064   0.44461708            0    1.4345087    6.8568924 
   30900    1.0010649   0.42904429            0    1.4300091    6.7261743 
   31000   0.99967099   0.42554157            0    1.4251126    6.7228206 
   31100   0.99959403   0.42311719            0    1.4226113    6.6882611 
   31200     1.015769   0.40814019            0    1.4238076    6.5787523 
   31300   0.99669704   0.41878797            0    1.4153853    6.6608694 
   31400    1.0041234   0.40335218            0    1.4073752    6.5495858 
   31500    1.0079373   0.39645971            0    1.4042962    6.4469756 
   31600   0.99275324   0.40500058            0    1.3976545     6.544727 
   31700     1.000545   0.39972238            0    1.4001673    6.4968321 
   31800    1.0043412   0.39918128            0     1.403422    6.5085424 
   31900   0.99432614   0.39830196            0    1.3925287    6.4902919 
   32000   0.99029763   0.39396097            0    1.3841596    6.4468525 
   32100   0.99881147   0.39392588            0    1.3926375    6.4864912 
   32200    1.0012086    0.4081463            0    1.4092548    6.6119265 
   32300     1.006293   0.40850698            0    1.4146993    6.6314181 
   32400   0.99707121   0.40137489            0    1.3983464    6.5629109 
   32500   0.97218737   0.41108127            0    1.3831714    6.6568725 
   32600   0.99258192   0.41126065            0    1.4037433    6.6746662 
   32700    1.0154825    0.4208479            0    1.4362288     6.801296 
   32800    1.0181296   0.42200733            0    1.4400352    6.8412973 
   32900   0.99520792   0.42449672            0    1.4196051    6.8518883 
   33000    0.9829446   0.43045334            0    1.4132996    6.8950737 
   33100   0.98965204   0.44235701            0    1.4319101    7.0179276 
   33200    1.0064531   0.45745131            0    1.4638037    7.2213524 
   33300    1.0311811   0.44893811            0    1.4800161    7.1550541 
   33400   0.99589134   0.45820046            0    1.4539922    7.2586237 
   33500   0.98316407   0.45942145            0    1.4424872    7.2661075 
   33600    1.0079358   0.45829109            0    1.4661261    7.2736778 
   33700    1.0154243   0.46816003            0    1.4834828    7.3713828 
   33800    1.0019483   0.47152227            0    1.4733704    7.4149401 
   33900    0.9912188   0.47235387            0    1.4634735    7.4197654 
   34000     0.992713   0.47703141            0    1.4696451    7.4781319 
   34100    1.0136363   0.47664231            0    1.4901773     7.495709 
   34200     1.007068   0.49170612            0    1.4986734    7.6488017 
   34300   0.99142599   0.49960259            0    1.4909294    7.7409906 
   34400   0.99423249   0.50209479            0    1.4962279    7.7399696 
   34500   0.99312275    0.5198549            0    1.5128783    7.9326115 
   34600    1.0035947   0.52945687            0    1.5329512    8.0457096 
   34700    1.0110249   0.53481154            0    1.5457354    8.1056215 
   34800    1.0028966    0.5386557            0     1.541452    8.1519803 
   34900   0.98359409   0.55164255            0    1.5351383    8.2613297 
   35000   0.98922573   0.56026251            0    1.5493893    8.3278989 
   35100    1.0098543   0.56260979            0    1.5723631    8.3848145 
   35200    1.0026827    0.5707889            0    1.5733713     8.486508 
   35300   0.98755558   0.58180395            0    1.5692608     8.572823 
   35400    1.0049078   0.57929359            0    1.5841009    8.5725554 
   35500    1.0037124   0.59251213            0    1.5961242    8.6866657 
   35600    1.0057186   0.59519409            0    1.6008121    8.7109156 
   35700   0.99772987   0.59546099            0    1.5930911    8.7188191 
   35800   0.99062952   0.59025602            0    1.5807865    8.6785186 
   35900   0.99538614   0.58907288            0    1.5843595    8.6797183 
   36000    1.0005254   0.60240732            0    1.6028327    8.8087819 
   36100    1.0083415   0.61165319            0    1.6198938    8.8915876 
   36200    1.0023135   0.61349262            0    1.6157059    8.9112914 
   36300    1.0056612   0.59307984            0    1.5986404    8.7141092 
   36400   0.98921813   0.59022476            0     1.579344    8.6691756 
   36500   0.98511304   0.59031037            0    1.5753249    8.6675661 
   36600   0.99767879   0.58997091            0    1.5875499    8.6478319 
   36700    1.0136047   0.58333681            0    1.5968401    8.6123302 
   36800    1.0043523   0.58234977            0    1.5866016    8.6056092 
   36900   0.99485565   0.57864348            0    1.5733996    8.5468273 
   37000   0.99793238     0.565227            0    1.5630596    8.4068306 
   37100   0.99567162   0.55897685            0    1.5545489    8.3597157 
   37200    1.0032634    0.5553763            0    1.5585394    8.3404174 
   37300    1.0071594   0.55984157            0    1.5669002    8.3668408 
   37400    1.0036786   0.56192126            0    1.5654994    8.3762952 
   37500    1.0080471   0.54103733            0    1.5489836    8.1666812 
   37600   0.97767405   0.54258049            0    1.5201568    8.1465157 
   37700   0.98710968   0.53232033            0    1.5193313    8.0544023 
   37800     1.013945    0.5213991            0    1.5352427    7.9585126 
   37900    1.0135876   0.51681517            0    1.5303014     7.880655 
   38000   0.98374523   0.52009095            0    1.5037378    7.9130683 
   38100   0.99302407   0.50126728            0    1.4941921    7.7397624 
   38200     1.000934   0.49840661            0    1.4992405    7.7125149 
   38300    1.0112974   0.49077986            0    1.5019761    7.6221494 
   38400    1.0044619   0.48663724            0    1.4909987    7.5628777 
   38500     1.000975   0.47175507            0      1.47263    7.4182413 
   38600   0.99683528    0.4586075            0    1.4553431    7.2729228 
   38700   0.99020557   0.46055969            0    1.4506662    7.2819194 
   38800   0.99893682     0.461508            0    1.4603449    7.2733553 
   38900    1.0070265   0.46016434            0    1.4670901    7.2629161 
   39000    1.0055344   0.44760178            0    1.4530356    7.1324409 
   39100   0.98219375   0.44289021            0    1.4249857    7.0457273 
   39200   0.98743765   0.43480315            0     1.422142    6.9456081 
   39300    1.0071726    0.4337244            0    1.4407963    6.9595889 
   39400    1.0150508   0.43744222            0    1.4523916    7.0141967 
   39500    1.0013679   0.44603177            0    1.4472996    7.0693223 
   39600    1.0011859   0.43084559            0    1.4319313     6.898431 
   39700   0.98133905   0.43738068            0    1.4186216    6.9427408 
   39800   0.99936969   0.43057822            0     1.429848    6.8854716 
   39900    1.0034495   0.44055777            0    1.4439069    6.9622425 
   40000   0.99689927   0.44699855            0    1.4437981    7.0178608 
   40100    1.0006281   0.43786036            0    1.4383884    6.9140735 
   40200    1.0035435   0.42775267            0    1.4311959    6.8184973 
   40300    1.0038671   0.42142101            0    1.4251877    6.7626945 
   40400    0.9988807   0.42959092            0    1.4283717    6.8287382 
   40500    1.0042681   0.42860471            0    1.4327724    6.8271124 
   40600   0.99281227   0.44130158            0    1.4340146    6.9232976 
   40700     1.005517   0.43822964            0    1.4436461    6.8943126 
   40800    1.0120153   0.43322108            0    1.4451351    6.8432592 
   40900   0.99623259    0.4317349            0    1.4278679    6.7967424 
   41000   0.98190011   0.43240222            0    1.4142041    6.7865798 
   41100   0.98815735   0.44039315            0    1.4284517    6.8561046 
   41200    1.0194853   0.43836578            0    1.4577491    6.8787291 
   41300    1.0071502   0.45023108            0    1.4572805    6.9736388 
   41400   0.98615677   0.44792354            0    1.4339817    6.9176281 
   41500   0.98141433   0.44565757            0    1.4269738    6.9077057 
   41600     1.001613   0.44910397            0    1.4506168    6.9486788 
   41700    1.0162803   0.45509681            0    1.4712755    7.0162295 
   41800    1.0082923   0.45206717            0    1.4602586    6.9826123 
   41900    0.9848935   0.45247191            0    1.4372669    6.9652222 
   42000   0.98612699   0.45367909            0    1.4397075    6.9655084 
   42100    1.0144078   0.45320305            0    1.4675094    6.9901482 
   42200     1.006652   0.47072615            0    1.4772775    7.1265553 
   42300     1.005105   0.46267804            0    1.4676825    7.0625914 
   42400   0.98504331   0.46483131            0    1.4497761    7.0561279 
   42500   0.98581093    0.4657867            0     1.451499    7.0627549 
   42600    1.0090393   0.46325859            0     1.472197    7.0372787 
   42700    1.0027198   0.47724412            0    1.4798636    7.1670148 
   42800   0.99103472    0.4851064            0     1.476042    7.2388734 
   42900   0.98073123   0.49499081            0     1.475624    7.3275461 
   43000    1.0123153   0.47315933            0    1.4853734     7.143935 
   43100    1.0105156   0.47152104            0    1.4819356    7.1434169 
   43200   0.99050494   0.48250086            0    1.4729067    7.2348455 
   43300   0.99908107   0.48633294            0    1.4853141    7.2851774 
   43400    1.0134151   0.48929625            0      1.50261    7.3033301 
   43500    1.0087119   0.48903664            0    1.4976477    7.3205055 
   43600   0.99898675   0.48096972            0    1.4798566    7.2364087 
   43700   0.99368024   0.47259107            0    1.4661719      7.16267 
   43800    1.0037652   0.47333324            0    1.4769981    7.1721877 
   43900    1.0091905   0.48516977            0    1.4942594    7.2721679 
   44000    1.0038299   0.49108928            0    1.4948188    7.3594914 
   44100   0.99693293   0.49569091            0    1.4925241    7.4056286 
   44200    1.0038412   0.49377488            0    1.4975157    7.3856147 
   44300     1.008665   0.49050195            0    1.4990661    7.3378684 
   44400   0.99546905   0.49288563            0    1.4882551    7.3848859 
   44500   0.99682771    0.4883163            0    1.4850443    7.3141796 
   44600    1.0039895   0.48462233            0    1.4885114    7.3024924 
   44700    1.0055358   0.48225381            0    1.4876891    7.3090992 
   44800   0.99299713   0.49222913            0     1.485127    7.3850686 
   44900    1.0078155   0.48056199            0    1.4882767    7.2637549 
   45000    1.0021095   0.47680566            0    1.4788149    7.2426884 
   45100   0.98467973   0.48746233            0    1.4720436    7.3411584 
   45200    1.0068025    0.4797754            0    1.4864773    7.2912116 
   45300    1.0100236   0.47968051            0    1.4896031    7.2914945 
   45400   0.99188146   0.48097949            0    1.4727618    7.2830058 
   45500   0.99404667   0.46651397            0    1.4604612    7.1190173 
   45600   0.98767702   0.46811573            0     1.455694    7.1672497 
   45700    1.0061714   0.45488097            0    1.4609518    7.0891803 
   45800    0.9989814   0.46813414            0    1.4670156    7.2158664 
   45900    1.0037359   0.46748629            0    1.4711218    7.1915218 
   46000    1.0053426   0.46519273            0    1.4704348    7.1929227 
   46100   0.99470679   0.46366415            0    1.4582715    7.1597006 
   46200   0.99032765   0.45674654            0    1.4469752    7.1025316 
   46300    1.0137148   0.43747649            0    1.4510899    6.9507479 
   46400   0.99678593   0.44861682            0    1.4453031    7.0147366 
   46500     0.985923   0.45568028            0    1.4415047    7.0742408 
   46600   0.99760609   0.45528444            0    1.4527908    7.0921662 
   46700    1.0100273   0.45343668            0     1.463363    7.1214865 
   46800   0.99532778   0.46415054            0    1.4593788    7.2123829 
   46900   0.99670417   0.45595641            0    1.4525609    7.1023577 
   47000   0.98815915   0.45840482            0    1.4464652    7.1503691 
   47100   0.99412697   0.46328031            0    1.4573079    7.2233761 
   47200    1.0033857   0.47316626            0    1.4764516    7.2862225 
   47300   0.99792038   0.47641562            0    1.4742362    7.3393244 
   47400   0.99815471   0.46505366            0    1.4631086    7.2317857 
   47500   0.99635793   0.46548495            0    1.4617432    7.2585698 
   47600   0.99427677   0.47474692            0    1.4689243    7.3302675 
   47700   0.99571009   0.48728041            0    1.4828909    7.4736214 
   47800    1.0140339   0.48163179            0    1.4955643    7.4434346 
   47900     1.007029   0.48473544            0    1.4916637    7.4755753 
   48000   0.99897506   0.48347143            0    1.4823466    7.4633539 
   48100   0.99254725   0.48489984            0    1.4773478     7.453684 
   48200   0.99251009   0.49231803            0    1.4847289    7.5565864 
   48300    1.0079704   0.49952357            0    1.5073932    7.6407895 
   48400    1.0161494   0.50067927            0     1.516727    7.6618689 
   48500   0.99675854   0.50550346            0    1.5021623    7.6894887 
   48600   0.98107822   0.50706645            0    1.4880466    7.6678827 
   48700   0.98851281   0.51305049            0    1.5014644    7.7561618 
   48800   0.99994355   0.52722792            0    1.5270715    7.9315499 
   48900    1.0098004   0.53499737            0    1.5446967      8.01965 
   49000     1.012587   0.52800067            0    1.5404864    7.9587605 
   49100   0.99024721   0.53405953            0    1.5242077    7.9895822 
   49200   0.99330518   0.52896577            0    1.5221716    7.9409486 
   49300    1.0004402   0.53410761            0    1.5344478    8.0190894 
   49400    1.0146295   0.53350429            0    1.5480323    8.0143884 
   49500   0.99978895    0.5414067            0    1.5410957    8.0445307 
   49600   0.99894955   0.52437136            0     1.523221    7.9099566 
   49700   0.97505177   0.53658307            0    1.5115373    8.0283745 
   49800   0.99773836   0.53342991            0    1.5310685    7.9879965 
   49900    1.0100484   0.54199838            0    1.5519458    8.0685971 
   50000    1.0066825    0.5423939            0    1.5489758    8.0932662 
   50100   0.99635248   0.53553436            0    1.5317872    8.0280757 
   50200   0.99080882   0.53121002            0    1.5219198    7.9754241 
   50300   0.98678752   0.54388405            0    1.5305729    8.1027955 
   50400   0.99998338   0.55477064            0     1.554654    8.2185546 
   50500    1.0185067    0.5516082            0    1.5700131    8.1946628 
   50600   0.99907718   0.55516738            0    1.5541447    8.2014416 
   50700   0.99204935   0.53864529            0    1.5305954    8.0685289 
   50800    0.9922733    0.5335464            0    1.5257205    8.0200505 
   50900    1.0060401    0.5385407            0    1.5444802    8.0549125 
   51000    1.0136788   0.54487394            0    1.5584514    8.1315381 
   51100   0.99770513   0.55198771            0    1.5495931    8.1860172 
   51200   0.99935556   0.53882104            0    1.5380767    8.0354593 
   51300   0.99178924   0.53685303            0    1.5285431    8.0033721 
   51400   0.99349486   0.52756409            0    1.5209596    7.9267546 
   51500   0.99569402   0.52744369            0    1.5230381    7.9496488 
   51600    1.0081803   0.53020925            0    1.5382888    7.9656288 
   51700    1.0183979   0.52434361            0    1.5426397    7.9125024 
   51800   0.99965049   0.52204379            0    1.5215943    7.8657942 
   51900   0.98891478   0.51560605            0    1.5044219    7.8091245 
   52000   0.99451396   0.51321862            0    1.5076331    7.7854362 
   52100    1.0084651   0.51750569            0      1.52587    7.8299193 
   52200    1.0178786   0.51776862            0    1.5355454    7.8231219 
   52300    1.0042251   0.51405602            0    1.5181807    7.7982609 
   52400   0.99836176   0.50372379            0    1.5019857    7.6875589 
   52500   0.99507754   0.50793141            0    1.5029094     7.710138 
   52600   0.99491349   0.51637566            0    1.5111897    7.7680054 
   52700    1.0053944   0.51088423            0    1.5161781     7.725437 
   52800    1.0154115   0.49214283            0    1.5074527    7.5668324 
   52900   0.99596062    0.4891526            0    1.4850136    7.5151578 
   53000   0.99140818   0.48305814            0    1.4743672     7.438404 
   53100   0.99304768   0.48954183            0    1.4824902    7.4960647 
   53200    1.0175553   0.48142322            0    1.4988768    7.4314421 
   53300    1.0100925   0.47971444            0    1.4897059    7.3965113 
   53400   0.98751654   0.47942578            0    1.4668436    7.3832104 
   53500   0.99533921   0.46677394            0    1.4620136    7.2582899 
   53600    1.0026034   0.46854397            0    1.4710471    7.2828866 
   53700    1.0119179   0.46983008            0    1.4816468    7.2973253 
   53800   0.99731936   0.47847929            0    1.4756989    7.3464514 
   53900     1.000731   0.46362285            0    1.4642538    7.2217226 
   54000   0.98891352    0.4665485            0    1.4553631    7.2200366 
   54100   0.98295305   0.47498964            0    1.4578444    7.2946145 
   54200    1.0115035   0.46439869            0     1.475801    7.2093577 
   54300    1.0131006   0.46364839            0    1.4766477    7.2131117 
   54400   0.99279521    0.4676427            0    1.4603386    7.2228511 
   54500   0.99351386   0.46003411            0    1.4534486    7.1433712 
   54600   0.99896527     0.462294            0    1.4611594    7.1614109 
   54700   0.99464574   0.47846734            0    1.4730136    7.2893567 
   54800    1.0046504   0.47114432            0    1.4756943    7.2331203 
   54900    0.9946621   0.47357538            0     1.468138    7.2628102 
   55000    1.0036558   0.46184343            0    1.4653989     7.148289 
   55100   0.99542082   0.46935278            0    1.4646741     7.201018 
   55200   0.99839339   0.47160903            0    1.4699026    7.2250624 
   55300    1.0017835   0.47321519            0    1.4748985    7.2537736 
   55400   0.98804954   0.48111355            0    1.4690643    7.3310239 
   55500   0.99806104   0.46985466            0    1.4678159    7.2052048 
   55600   0.99695167   0.47517132            0    1.4720233    7.2545773 
   55700   0.99837945   0.48537067            0    1.4836503    7.3702511 
   55800    1.0100527   0.48056308            0    1.4905148    7.3050721 
   55900    1.0013854   0.47698707            0    1.4782724    7.2581652 
   56000   0.98034053   0.48254862            0    1.4627911    7.2838765 
   56100   0.99187514   0.47299231            0    1.4647683    7.2308965 
   56200    1.0020304   0.48104121            0    1.4829714    7.3087597 
   56300    1.0218628   0.47568576            0    1.4974464    7.2853621 
   56400     1.007432   0.48026338            0    1.4875947    7.2828722 
   56500   0.98271251   0.48782142            0    1.4704357    7.3399722 
   56600   0.99663287   0.48265132            0    1.4791845     7.299792 
   56700    1.0220065   0.47397814            0    1.4958824    7.2439409 
   56800    1.0036099   0.49206478            0    1.4955744    7.4162135 
   56900    1.0090386   0.48529931            0     1.494237    7.3659602 
   57000   0.99794649   0.49117943            0    1.4890261    7.4040738 
   57100      1.00393   0.49016706            0    1.4939967    7.3998356 
   57200     1.008524   0.48489728            0    1.4933204    7.3193907 
   57300   0.99455054   0.48062186            0    1.4750729     7.264578 
   57400   0.97510257   0.49401808            0    1.4690231    7.3960927 
   57500    1.0087676   0.48471153            0    1.4933782    7.3153995 
   57600     1.015377   0.49039652            0    1.5056719    7.3668904 
   57700   0.99812066   0.49482649            0    1.4928473    7.4220192 
   57800   0.98970979   0.49269255            0    1.4823034    7.3865777 
   57900   0.99342805   0.49733771            0    1.4906664    7.4370968 
   58000    1.0021738   0.51003257            0    1.5121062    7.5892361 
   58100    1.0174669   0.50473309            0    1.5220983    7.5603865 
   58200   0.99935719   0.50814551            0    1.5074028     7.568151 
   58300   0.98379679   0.50119762            0     1.484896    7.4732722 
   58400   0.98456726   0.49220137            0    1.4766702    7.3889721 
   58500    1.0022519   0.48772491            0    1.4898766    7.3665911 
   58600    1.0070118   0.49531279            0    1.5022239    7.4531281 
   58700    1.0050327   0.49692832            0    1.5018606    7.4446816 
   58800   0.99823373   0.49302752            0    1.4911614    7.4112097 
   58900   0.99854082   0.48029771            0    1.4787387    7.3070241 
   59000   0.98965555   0.48997087            0    1.4795275    7.3920972 
   59100    1.0045241   0.49662178            0    1.5010455    7.4466163 
   59200    1.0133997   0.49730861            0     1.510607    7.4960033 
   59300    1.0017326   0.48977825            0    1.4914106    7.4023939 
   59400   0.99156974   0.47913236            0    1.4706029    7.2989981 
   59500   0.99219266   0.47481933            0    1.4669128     7.244899 
   59600    0.9959973   0.48345293            0    1.4793506    7.3444811 
   59700    1.0080827   0.48732049            0    1.4953024    7.4015174 
   59800     1.005356   0.48872049            0    1.4939759    7.4014191 
   59900   0.99327248   0.48484835            0    1.4780215    7.3466308 
   60000   0.98323059   0.48049483            0    1.4636271    7.3350031 
   60100     1.003664   0.47308818            0    1.4766518    7.2693357 
   60200    1.0046317   0.48442344            0    1.4889547    7.3733198 
   60300    1.0090797   0.47728972            0    1.4862685    7.3210465 
   60400   0.99936157   0.47630107            0    1.4755627    7.2890248 
   60500   0.99586446   0.47755793            0    1.4733228    7.3216556 
   60600   0.99269507   0.48631815            0     1.478914    7.4009553 
   60700    1.0118906   0.47188262            0    1.4836721    7.2596496 
   60800    1.0008862   0.47154041            0    1.4723266    7.2682195 
   60900   0.98923493   0.47635248            0    1.4654885    7.3161841 
   61000   0.99628432   0.48453522            0    1.4807199    7.4238728 
   61100    1.0122317   0.49370871            0    1.5058392    7.5213989 
   61200    1.0122552   0.49357104            0     1.505725    7.5098217 
   61300    0.9915989   0.48964486            0    1.4811446    7.4566978 
   61400   0.97430854   0.48950637            0    1.4637175    7.4338669 
   61500   0.99312157   0.48746043            0    1.4804827    7.4274791 
   61600    1.0176366   0.48964329            0    1.5071781    7.4861859 
   61700    1.0065922   0.49868059            0    1.5051721    7.5736301 
   61800   0.99313843   0.49644173            0    1.4894809    7.5452244 
   61900   0.98522563   0.50134317            0    1.4864703    7.5921528 
   62000   0.99522326   0.50695876            0    1.5020825    7.6522821 
   62100    1.0159722   0.50316762            0    1.5190382    7.6294525 
   62200    1.0104821   0.49998277            0    1.5103638    7.6300978 
   62300   0.98657076    0.5079948            0    1.4944669    7.6779621 
   62400   0.99065413   0.50873216            0    1.4992872    7.6617749 
   62500    0.9963556   0.51383535            0    1.5100913     7.702594 
   62600    1.0059646   0.51154471            0    1.5174087    7.7246214 
   62700     1.010081   0.50753167            0    1.5175116    7.6815214 
   62800   0.99044231    0.5159111            0    1.5062544    7.7602834 
   62900   0.99585197   0.50909292            0    1.5048453    7.7015699 
   63000   0.99510921   0.51583641            0    1.5108461    7.7589986 
   63100    1.0115988   0.50701242            0    1.5185101    7.6925303 
   63200   0.99338819     0.523748            0    1.5170369    7.8184181 
   63300   0.99832954   0.51844072            0    1.5166704    7.8008138 
   63400     1.003727   0.51124873            0    1.5148753    7.7112359 
   63500   0.98788655   0.52049502            0    1.5082828    7.7848666 
   63600   0.98985888   0.52508082            0    1.5148407    7.8408929 
   63700    1.0141657   0.52025041            0    1.5343147    7.8226643 
   63800    1.0086262   0.53042058            0     1.538946    7.9174836 
   63900    1.0036701   0.52306167            0    1.5266314    7.8616421 
   64000   0.99070186   0.51951111            0    1.5101139    7.8100143 
   64100   0.98345108   0.53030457            0    1.5136573    7.9037286 
   64200    1.0086678   0.53390168            0    1.5424686    7.9491387 
   64300    1.0099564   0.54303382            0    1.5528892    8.0412538 
   64400   0.99893402   0.53709782            0    1.5359319    7.9738503 
   64500   0.98267211   0.53314928            0    1.5157231    7.9233103 
   64600   0.99581582   0.51891488            0    1.5146311     7.822619 
   64700   0.99531851   0.53005588            0    1.5252749    7.9009361 
   64800    1.0039631    0.5312701            0    1.5351328    7.9319504 
   64900   0.99549943   0.53765027            0    1.5330502    7.9731531 
   65000    1.0053851   0.52386774            0    1.5291524    7.8738785 
   65100    1.0068578   0.51959616            0    1.5263533    7.8217188 
   65200   0.99934676   0.52227629            0    1.5215231    7.8347493 
   65300   0.99672173   0.52126277            0    1.5178848    7.8333044 
   65400   0.99521599   0.53010049            0     1.525217    7.9026273 
   65500    1.0139707   0.52398324            0    1.5378525    7.8504702 
   65600    1.0042309    0.5244489            0    1.5285794    7.8575267 
   65700   0.99048916   0.52279015            0    1.5131803    7.8239362 
   65800   0.99899326   0.51170302            0    1.5105964    7.7215097 
   65900    1.0013163   0.51205444            0    1.5132706    7.7174538 
   66000    1.0049547   0.51809522            0    1.5229494    7.7848839 
   66100    1.0109646   0.51644952            0     1.527313     7.784937 
   66200    1.0030326   0.51176119            0    1.5146935    7.7334968 
   66300   0.99118072   0.50760329            0    1.4986849    7.6758065 
   66400   0.98981248   0.50808309            0    1.4977966    7.6644628 
   66500    1.0117503   0.49844967            0    1.5100988     7.606404 
   66600   0.99713856   0.51456681            0    1.5116057    7.7346515 
   66700    1.0094815   0.49716587            0    1.5065464    7.5890679 
   66800   0.98625254   0.51120615            0    1.4973601    7.6737502 
   66900   0.99796264   0.50085304            0    1.4987159     7.588416 
   67000   0.99214302   0.50469972            0    1.4967435    7.6275381 
   67100    1.0047364   0.49452467            0    1.4991606    7.5349448 
   67200   0.99823832   0.49401724            0    1.4921557    7.5123145 
   67300   0.98723349   0.49058874            0    1.4777235    7.4861332 
   67400   0.99250927   0.48883524            0    1.4812453    7.4679226 
   67500    1.0056951   0.49224425            0    1.4978388    7.4806387 
   67600    1.0092483   0.49382042            0    1.5029678    7.5293982 
   67700   0.99151681   0.49928735            0     1.490705    7.5558643 
   67800     0.992901   0.49076643            0    1.4835681     7.470997 
   67900     1.003702   0.48597377            0    1.4895754    7.4207652 
   68000   0.99974515   0.49463249            0    1.4942777    7.5118996 
   68100    1.0060474   0.49120388            0    1.4971506    7.4733997 
   68200    1.0006915   0.49085893            0    1.4914503    7.4516296 
   68300   0.98739162   0.49305812            0     1.480351    7.4508573 
   68400    1.0015471   0.47761706            0    1.4790641    7.3337215 
   68500    1.0019536   0.48018256            0    1.4820359    7.3766583 
   68600   0.99555763   0.48834146            0    1.4837995    7.4249024 
   68700    1.0053567   0.48174063            0    1.4869968    7.3767785 
   68800   0.99809013   0.48908976            0    1.4870801    7.4146602 
   68900   0.99349046   0.49368672            0    1.4870778    7.4600534 
   69000    1.0051613   0.48263893            0    1.4876997    7.3600978 
   69100   0.99937241   0.48395528            0    1.4832278    7.3632363 
   69200    0.9921633   0.48996444            0    1.4820285    7.4158013 
   69300     1.008126   0.48370973            0    1.4917349    7.3836485 
   69400    1.0011783   0.48995255            0    1.4910307    7.4168579 
   69500   0.99241288   0.48822485            0    1.4805385    7.4041318 
   69600   0.99402821   0.48792365            0    1.4818525    7.3951664 
   69700    1.0109697    0.4902309            0    1.5010995    7.4428988 
   69800    1.0089825   0.49985039            0     1.508732    7.5334221 
   69900     1.006704   0.49606779            0    1.5026711    7.5000422 
   70000   0.99372498   0.49372294            0    1.4873485    7.4566804 
   70100   0.99300268   0.48844651            0    1.4813499    7.3838865 
   70200   0.99184346   0.49382308            0    1.4855674    7.4331818 
   70300    1.0045766   0.49439289            0    1.4988691    7.4452976 
   70400   0.99992409   0.50568208            0    1.5055062      7.57542 
   70500    1.0123799   0.49608466            0    1.5083633     7.473623 
   70600   0.99809981   0.49785126            0    1.4958513    7.4837876 
   70700   0.98920114     0.495699            0    1.4848012    7.4614327 
   70800    1.0068331   0.48225574            0    1.4889881    7.3432632 
   70900    1.0006366    0.4944767            0    1.4950132    7.4509252 
   71000   0.99427289   0.50644944            0    1.5006229    7.5489058 
   71100    1.0023209   0.50461049            0    1.5068312    7.5447936 
   71200    1.0106713   0.49434969            0    1.5049199    7.4645682 
   71300   0.99245219   0.50224557            0    1.4945985    7.5233304 
   71400   0.99800791   0.49892386            0     1.496832     7.500991 
   71500    1.0054105   0.49738677            0    1.5026967     7.480589 
   71600   0.99572175    0.5039693            0    1.4995915    7.5336695 
   71700   0.99168576   0.51247783            0    1.5040644    7.6322649 
   71800    1.0078109   0.50647623            0    1.5141863    7.5751294 
   71900    1.0001295    0.5093691            0    1.5093986    7.6166164 
   72000    1.0013121   0.49893777            0    1.5001497    7.4799901 
   72100   0.99054928   0.49906504            0    1.4895153    7.4818976 
   72200    1.0042249   0.48835205            0    1.4924765    7.4158335 
   72300   0.99883116   0.49764733            0    1.4963786    7.4772457 
   72400   0.99113763   0.50363547            0     1.494674     7.525142 
   72500    1.0002853   0.49887817            0    1.4990634    7.4913165 
   72600    1.0063237   0.49858597            0    1.5048091    7.4894821 
   72700    1.0049442   0.49373323            0    1.4985769    7.4679585 
   72800   0.99782346   0.48940118            0    1.4871249    7.3961937 
   72900   0.99520869   0.49074772            0    1.4858569    7.4100548 
   73000     1.000292   0.49973213            0    1.4999241    7.5211294 
   73100    1.0150787    0.5027606            0    1.5177378    7.5558618 
   73200    1.0044269    0.5058993            0    1.5102257    7.5846422 
   73300   0.99455803    0.5015078            0    1.4959664    7.5523884 
   73400    1.0042907   0.48868322            0    1.4928735    7.4402425 
   73500   0.99670892   0.49532461            0    1.4919339     7.464811 
   73600    1.0049457   0.49107899            0    1.4959242     7.458418 
   73700    1.0000471   0.49887703            0    1.4988241    7.5183366 
   73800    1.0081336   0.48892042            0    1.4969532     7.420062 
   73900    1.0003189   0.48287834            0    1.4830972    7.3729242 
   74000    0.9892805   0.48760794            0    1.4767895    7.4019302 
   74100   0.99417847   0.49188287            0    1.4859619    7.4334183 
   74200    1.0035009   0.49495754            0     1.498358    7.4734095 
   74300     1.010099    0.4858266            0    1.4958246    7.3918833 
   74400   0.98914967   0.49074513            0    1.4797959    7.4344946 
   74500    0.9867663   0.48815796            0    1.4748256     7.412979 
   74600   0.99992531   0.48806192            0    1.4878872    7.4113323 
   74700    1.0065385   0.49301141            0    1.4994493    7.4744764 
   74800    1.0031648   0.49947115            0    1.5025356    7.5538898 
   74900    1.0051595   0.48810993            0    1.4931689    7.4378395 
   75000   0.98731914   0.48970543            0    1.4769258     7.433946 
   75100   0.98274009   0.49522998            0    1.4778718    7.4770688 
   75200   0.99833023   0.49347854            0    1.4917089    7.4947106 
   75300    1.0058816   0.49798149            0    1.5037625    7.5529812 
   75400    1.0205642   0.48782416            0    1.5082863    7.4629392 
   75500   0.99835298   0.49287153            0    1.4911247    7.4984864 
   75600   0.99123866   0.48991975            0    1.4810593    7.4567178 
   75700   0.99952284   0.49328321            0    1.4927061    7.5059799 
   75800    1.0142326   0.49837317            0    1.5125044    7.5715491 
   75900    1.0114338   0.50071879            0    1.5120515    7.5696426 
   76000   0.98317421   0.50817364            0    1.4912495    7.6293852 
   76100   0.98984579   0.49969643            0    1.4894432    7.5668512 
   76200   0.99916844    0.5098327            0    1.5089012    7.6811896 
   76300    1.0057516   0.51932546            0    1.5249765    7.7706274 
   76400     1.014511   0.51121737            0    1.5256269    7.6981331 
   76500   0.99488658   0.51011766            0    1.5049048    7.6704463 
   76600   0.98371415   0.50671592            0    1.4903317    7.6307197 
   76700    0.9809661   0.51981423            0    1.5006822    7.7512043 
   76800    1.0142932      0.51183            0    1.5260218    7.7244773 
   76900    1.0029839   0.52990263            0    1.5327862    7.8908459 
   77000     1.003068   0.52425374            0    1.5272215    7.8152945 
   77100    0.9979891   0.51214826            0    1.5100376    7.6967428 
   77200   0.99372329   0.50407173            0    1.4976956    7.6193867 
   77300    0.9949039   0.50961322            0    1.5044176    7.6773759 
   77400    1.0012311   0.51794686            0    1.5190778    7.7734269 
   77500    1.0054986   0.52207178            0    1.5274698    7.8091442 
   77600     1.003644   0.52170984            0    1.5252534    7.8049285 
   77700    1.0105378    0.5067182            0    1.5171549    7.6407582 
   77800   0.97865164   0.52367673            0    1.5022305    7.7982804 
   77900    1.0116715   0.50254596            0    1.5141163    7.6325415 
   78000    1.0128963   0.51173186            0    1.5245268    7.6985982 
   78100   0.98934586   0.52360533            0    1.5128523    7.8145962 
   78200   0.99201899   0.51693946            0    1.5088592    7.7324223 
   78300   0.99968634   0.51757248            0    1.5171588    7.7567415 
   78400    1.0076061   0.51965785            0    1.5271632     7.798636 
   78500    1.0016729   0.52541637            0    1.5269891    7.8465984 
   78600    1.0123457    0.5065043            0    1.5187487    7.6772558 
   78700   0.98550598   0.51808291            0    1.5034903    7.7470927 
   78800   0.99529573   0.50909169            0    1.5042879     7.672195 
   78900     1.004074   0.51048741            0     1.514461    7.6834475 
   79000   0.99900243   0.51945072            0    1.5183532    7.7680014 
   79100    1.0048298   0.51553325            0    1.5202626    7.7536788 
   79200    1.0049068   0.51124643            0    1.5160527    7.6895045 
   79300    0.9938094    0.5187629            0    1.5124729    7.7811397 
   79400    1.0037509   0.51497775            0    1.5186283    7.7566051 
   79500     0.988435   0.52880024            0    1.5171364    7.8555812 
   79600    1.0046729   0.51463424            0    1.5192066    7.7500223 
   79700    1.0008446   0.51430279            0    1.5150473     7.734753 
   79800    1.0008408   0.51428194            0    1.5150226    7.7391451 
   79900    1.0048633   0.51987915            0     1.524642    7.7846074 
   80000    1.0167132   0.51149252            0    1.5281041     7.684818 
   80100    0.9955342   0.50942288            0    1.5048575    7.6560166 
   80200    0.9786203   0.51165701            0    1.4901794    7.6735342 
   80300    1.0065902   0.49726445            0     1.503754    7.5447175 
   80400    1.0080037   0.51012709            0      1.51803    7.6849513 
   80500    1.0128473   0.51113608            0    1.5238821    7.7001644 
   80600    1.0090794   0.49968874            0    1.5086673    7.5769599 
   80700    0.9874651   0.49819406            0    1.4855604    7.5370979 
   80800   0.99002355   0.49643657            0    1.4863611    7.5354128 
   80900    1.0072285   0.50123939            0    1.5083672    7.5943889 
   81000    1.0094318   0.51403019            0     1.523361    7.7015628 
   81100   0.99516271   0.51170141            0    1.5067646    7.6639679 
   81200   0.98096338   0.50389175            0     1.484757    7.5975992 
   81300   0.98767037   0.50232609            0    1.4898977    7.5686624 
   81400    1.0055029   0.50745144            0    1.5128538    7.6419974 
   81500    1.0182873   0.50807446            0    1.5262599    7.6658237 
   81600    1.0077967   0.50272375            0    1.5104196    7.5692772 
   81700   0.99645435   0.48399293            0    1.4803476    7.3968828 
   81800   0.98348775   0.48472267            0    1.4681121     7.390983 
   81900    1.0103146   0.48090016            0    1.4911137    7.3640032 
   82000    1.0200416   0.48958005            0    1.5095196    7.4513211 
   82100    1.0076656   0.49391474            0    1.5014796    7.5113926 
   82200   0.99305389   0.49229688            0    1.4852515    7.4627953 
   82300   0.98434764   0.49882719            0    1.4830764    7.5291473 
   82400    1.0054824   0.49743604            0    1.5028179    7.5121009 
   82500     1.011068   0.50227331            0    1.5132402    7.5641051 
   82600    1.0092252   0.49342027            0    1.5025446    7.4861033 
   82700   0.98815179   0.49432569            0    1.4823787    7.4738556 
   82800   0.99196091   0.48735234            0    1.4792141    7.4095247 
   82900     1.000127   0.48973896            0    1.4897659    7.4234409 
   83000    1.0021845   0.49835376            0     1.500438    7.5019844 
   83100    1.0027102   0.50181158            0    1.5044215     7.554284 
   83200   0.99523877   0.50614299            0    1.5012822    7.5804797 
   83300    1.0008475   0.49902514            0    1.4997726    7.5219226 
   83400   0.99622432   0.49932336            0    1.4954481    7.5182103 
   83500   0.99494923   0.49867609            0    1.4935258    7.5056138 
   83600   0.99867653    0.4963779            0    1.4949546    7.4778336 
   83700     1.002192   0.49479587            0    1.4968877     7.487174 
   83800    1.0017114   0.49807732            0    1.4996886    7.5011061 
   83900    1.0006945   0.50070298            0    1.5012974    7.5370191 
   84000    1.0043909   0.49481478            0    1.4991052    7.5067882 
   84100    1.0032486   0.49017849            0    1.4933268    7.4488949 
   84200   0.99104644   0.49954353            0    1.4904909    7.5087701 
   84300   0.99915449   0.49709207            0    1.4961466    7.4964757 
   84400    1.0014133    0.5017628            0    1.5030759    7.5517163 
   84500    1.0001796    0.5079338            0    1.5080134    7.6091102 
   84600     1.005433    0.5052411            0    1.5105735    7.5686199 
   84700    1.0070535   0.50323336            0    1.5101862    7.5654287 
   84800    0.9967845   0.50953355            0    1.5062184    7.5947384 
   84900    1.0032906   0.50157947            0    1.5047698    7.5350894 
   85000    1.0061427   0.49185776            0    1.4978998    7.4358384 
   85100    1.0014998   0.48711925            0    1.4885189    7.4034208 
   85200   0.99052683   0.49905087            0    1.4894786    7.4969629 
   85300    1.0073133   0.49856571            0    1.5057783    7.5170797 
   85400    1.0090098   0.50405118            0    1.5129601    7.5646669 
   85500    1.0061147   0.49973361            0    1.5057477     7.534696 
   85600   0.99195808   0.50220337            0    1.4940623    7.5125527 
   85700    0.9933583   0.50456991            0    1.4978289    7.5593976 
   85800    1.0046415   0.50310869            0    1.5076498    7.5423971 
   85900    1.0076069   0.49720826            0    1.5047144    7.5007666 
   86000   0.99363228   0.49880023            0    1.4923331    7.4797295 
   86100    0.9904827   0.49634161            0    1.4867253    7.4778675 
   86200    1.0021409   0.49544446            0    1.4974851    7.4964038 
   86300    0.9984293   0.50703063            0    1.5053601    7.5735148 
   86400   0.99828782   0.50571978            0    1.5039078    7.5847164 
   86500   0.99937201   0.50060569            0    1.4998778    7.5229046 
   86600   0.98032712   0.51245476            0    1.4926838     7.630687 
   86700    1.0041152   0.49827951            0    1.5022943    7.5243349 
   86800    1.0016648   0.50370212            0    1.5052668    7.5623224 
   86900    1.0082821    0.4895587            0      1.49774    7.4227259 
   87000   0.98347286   0.50143102            0    1.4848055    7.5083968 
   87100   0.99942069   0.49706891            0    1.4963897     7.488256 
   87200    1.0103907   0.49430681            0    1.5045964    7.4700662 
   87300   0.99386442   0.50867174            0    1.5024368    7.5875833 
   87400     1.000281   0.50281358            0    1.5029946    7.5647089 
   87500    1.0013854   0.49578539            0    1.4970707    7.5108673 
   87600     1.003597   0.49366913            0    1.4971657    7.4886111 
   87700     1.009606   0.48674938            0    1.4962545    7.4218728 
   87800   0.99127824   0.49356863            0    1.4847477    7.4529714 
   87900   0.99114434   0.49534675            0     1.486392    7.4795359 
   88000    1.0056901   0.50218928            0    1.5077788    7.5759762 
   88100    1.0131912   0.50978727            0    1.5228771    7.6376828 
   88200    1.0132841   0.49543406            0    1.5086169    7.4995496 
   88300   0.98992089   0.48655121            0    1.4763731    7.4134474 
   88400   0.98505105   0.48678258            0    1.4717351    7.3949395 
   88500    1.0005753   0.49666095            0    1.4971362    7.5183243 
   88600    1.0253732   0.49162038            0    1.5168911    7.5047956 
   88700   0.99326148   0.50528635            0    1.4984485    7.6098711 
   88800   0.98659777   0.49831254            0    1.4848116    7.5168306 
   88900    1.0015431    0.4883222            0    1.4897651    7.4481032 
   89000    1.0054683    0.4947552            0    1.5001229    7.5179072 
   89100   0.99708818    0.5092885            0     1.506277    7.6261671 
   89200    1.0088618    0.4984321            0     1.507193    7.5344867 
   89300    1.0005266   0.49527736            0    1.4957039    7.5292522 
   89400   0.99651223   0.49220428            0    1.4886169    7.4760432 
   89500   0.99505187   0.49967471            0    1.4946271    7.5383402 
   89600    1.0032066   0.50524046            0    1.5083467    7.6091814 
   89700    1.0039989    0.5089957            0    1.5128942    7.6598526 
   89800   0.99081928   0.51466225            0    1.5053824    7.7040333 
   89900    1.0012665   0.50511718            0    1.5062836    7.6157913 
   90000    1.0104893   0.49346581            0     1.503854    7.5031926 
   90100   0.99298093   0.50357643            0    1.4964581    7.6086659 
   90200    1.0003661    0.5039423            0    1.5042084    7.6041656 
   90300   0.99973916   0.51290411            0    1.5125433    7.7106154 
   90400    1.0141088   0.50606096            0    1.5200683    7.6415353 
   90500    1.0041231   0.50590811            0    1.5099308     7.646684 
   90600   0.98180079   0.51460807            0    1.4963107     7.692773 
   90700    1.0000722   0.50652686            0     1.506499    7.6471491 
   90800    1.0047337   0.51521891            0    1.5198522    7.7189516 
   90900    1.0103863   0.51026265            0    1.5205479    7.6837439 
   91000   0.99599635   0.51232853            0    1.5082253     7.694338 
   91100   0.99121499   0.51577575            0    1.5068916     7.729643 
   91200    1.0097521   0.51534603            0    1.5249972    7.7523049 
   91300    1.0225819   0.51157551            0    1.5340552     7.743082 
   91400    1.0099262   0.50905742            0    1.5188826    7.6612589 
   91500   0.98617417   0.50686465            0    1.4929402    7.6143938 
   91600   0.98866759   0.50213652            0    1.4907052    7.5752605 
   91700    1.0038078   0.51084377            0    1.5145512     7.677405 
   91800    1.0124873   0.52032078            0    1.5327068    7.7792721 
   91900     1.009496   0.51719144            0    1.5265864    7.7343835 
   92000   0.99586407   0.51045433            0    1.5062188    7.6924438 
   92100   0.97724796   0.52344703            0    1.5005973    7.7748276 
   92200   0.99999616   0.52082298            0    1.5207191    7.7666787 
   92300    1.0162269   0.51878302            0    1.5349083       7.7475 
   92400    1.0014024   0.51308608            0    1.5143884    7.6957749 
   92500   0.98596331   0.51041231            0     1.496277    7.6602025 
   92600    1.0003126   0.50498191            0    1.5051945    7.6185996 
   92700    1.0076183   0.51084469            0    1.5183622    7.6997693 
   92800    1.0022073   0.52285578            0    1.5249628    7.8132695 
   92900    1.0106509   0.51152636            0    1.5220762    7.6836911 
   93000   0.98716096   0.51198211            0    1.4990444    7.6821455 
   93100   0.99068004   0.50738847            0    1.4979694    7.6393907 
   93200    1.0039549   0.51043009            0    1.5142845    7.6809587 
   93300    1.0130265    0.5114391            0    1.5243643    7.6808118 
   93400    1.0061608    0.5040321            0    1.5100923    7.6150023 
   93500   0.97823359   0.51017227            0     1.488308    7.6374018 
   93600   0.98516224   0.51112612            0    1.4961898    7.6704973 
   93700    1.0121684   0.50953254            0    1.5215998    7.6555998 
   93800    1.0120959    0.5110176            0    1.5230123    7.6908696 
   93900    0.9964812   0.50613168            0    1.5025132    7.6210163 
   94000   0.99230076   0.49761904            0    1.4898206    7.5461549 
   94100   0.98746491   0.50656124            0    1.4939274    7.6137199 
   94200    1.0022566    0.5106928            0    1.5128492    7.6635028 
   94300    1.0129992   0.50995392            0    1.5228518    7.6815303 
   94400    1.0018672   0.51745596            0     1.519223    7.7243848 
   94500   0.97726634   0.52194619            0    1.4991148    7.7624691 
   94600   0.99014809   0.49762151            0    1.4876706       7.5224 
   94700   0.97965749   0.50456347            0     1.484123    7.6015529 
   94800    1.0180671   0.49856701            0    1.5165323    7.5745971 
   94900    1.0083204   0.50639017            0    1.5146097     7.621281 
   95000   0.98871208   0.50821095            0    1.4968242    7.6200555 
   95100    0.9869032   0.51273487            0    1.4995394    7.7001671 
   95200    1.0069554   0.50983276            0    1.5166875    7.6577035 
   95300    1.0038598   0.51080264            0    1.5145621    7.6713295 
   95400    1.0073189   0.49257593            0    1.4997941    7.4834759 
   95500    1.0000768   0.49233619            0     1.492313    7.4903134 
   95600   0.99016266   0.50537676            0    1.4954404    7.5773831 
   95700    1.0095166   0.49542701            0    1.5048427    7.5265331 
   95800   0.99365589    0.5095794            0    1.5031359    7.6395082 
   95900   0.98995946   0.49759282            0    1.4874533    7.5099341 
   96000   0.98819807   0.48393065            0    1.4720299     7.387296 
   96100   0.98987156   0.49652344            0     1.486296    7.5135866 
   96200   0.99438261   0.50964248            0    1.5039257    7.6491396 
   96300    1.0053397   0.50506339            0    1.5103026     7.605385 
   96400   0.99777048    0.5019911            0    1.4996618    7.5383536 
   96500   0.98721904   0.49922977            0    1.4863501    7.5071185 
   96600   0.99950675   0.49254512            0    1.4919519     7.471723 
   96700    1.0176788    0.5038678            0    1.5214448    7.6040744 
   96800    1.0185549   0.50135354            0    1.5198066    7.5631062 
   96900   0.99228328   0.50919518            0    1.5013792    7.6407912 
   97000   0.99939694   0.50041944            0    1.4997164    7.5512628 
   97100   0.99121466   0.51076501            0    1.5018805    7.6187486 
   97200    1.0066151   0.51433183            0    1.5208463    7.6808403 
   97300    1.0267944   0.50911719            0    1.5358089    7.6301295 
   97400   0.99800444   0.51423419            0    1.5121388    7.6637526 
   97500   0.99132866   0.51121191            0    1.5024414    7.6159435 
   97600   0.99547411   0.50729096            0    1.5026655    7.6208492 
   97700   0.99737206    0.5167954            0    1.5140677    7.6603486 
   97800       1.0064   0.51844223            0    1.5247416    7.7141783 
   97900    1.0067425   0.51510329            0    1.5217451    7.6896999 
   98000   0.98416259   0.51214271            0    1.4962069    7.6391217 
   98100    1.0024704    0.4916036            0    1.4939737      7.44872 
   98200   0.99450442   0.50386302            0     1.498268    7.5543961 
   98300    1.0044997    0.5076948            0     1.512094    7.6169683 
   98400    1.0134953   0.51522724            0    1.5286212    7.6885665 
   98500    1.0183431   0.50460434            0    1.5228456    7.5973885 
   98600   0.99454515   0.50120586            0    1.4956515    7.5422216 
   98700   0.99397749    0.5017826            0    1.4956607     7.553692 
   98800   0.99811668   0.50132344            0    1.4993403    7.5523574 
   98900    1.0005408   0.50478583            0    1.5052266    7.5761749 
   99000    1.0117114   0.51018606            0    1.5217962    7.6276481 
   99100    1.0105207   0.50939656            0    1.5198162    7.6221209 
   99200   0.99670244   0.49879246            0    1.4953952    7.5151494 
   99300   0.99989588   0.49399433            0    1.4937902    7.4606401 
   99400   0.99678634   0.49985447            0    1.4965411    7.5105203 
   99500   0.99006351   0.51612546            0      1.50609    7.6731538 
   99600    1.0246558    0.5059457            0    1.5304991    7.6074982 
   99700    1.0102613    0.5059674            0    1.5161277    7.6089607 
   99800   0.99589001   0.50579154            0     1.501582    7.6019823 
   99900   0.99572927   0.50190562            0    1.4975353    7.5458028 
  100000    1.0091778   0.49244951            0    1.5015264     7.474363 
  100100    1.0111804   0.49908129            0    1.5101606    7.5414482 
  100200    1.0114537   0.50323063            0    1.5145832    7.5711224 
  100300   0.99967921   0.50547871            0     1.505058    7.5914163 
  100400   0.99650582   0.49770402            0    1.4941102    7.5181874 
  100500    0.9922513   0.49853513            0    1.4906872    7.5145432 
  100600   0.99959343   0.51453626            0    1.5140297    7.6976609 
  100700    1.0137907    0.5125969            0    1.5262862    7.6610858 
  100800    1.0049209   0.50485384            0    1.5096743    7.5833827 
  100900   0.99647133   0.50272509            0    1.4990968    7.5534863 
  101000    1.0035764   0.49879837            0    1.5022744    7.5156023 
  101100    0.9964268   0.50210786            0     1.498435    7.5325952 
  101200   0.97861845   0.50241129            0    1.4809319     7.529155 
  101300   0.98311754   0.49898524            0    1.4820045    7.5068049 
  101400   0.99892151    0.5069963            0    1.5058179    7.5950947 
  101500    1.0024959   0.51012276            0    1.5125184    7.6216828 
  101600    1.0013111    0.5048483            0    1.5060592    7.5803287 
  101700   0.98932147   0.50143895            0    1.4906615    7.5164654 
  101800   0.97678741   0.50144572            0    1.4781355    7.5437351 
  101900    1.0062974   0.49154414            0    1.4977409    7.4549824 
  102000     1.007004   0.50435769            0     1.511261    7.5985971 
  102100    1.0067743   0.50720228            0    1.5138759    7.6142538 
  102200    1.0020765   0.49862711            0    1.5006034     7.529021 
  102300    0.9791127   0.50199488            0    1.4810097    7.5429351 
  102400   0.99435623   0.49307354            0    1.4873303    7.4633159 
  102500    1.0014206   0.49847312            0    1.4997936    7.5469727 
  102600    1.0111828   0.49687756            0    1.5079592    7.5195373 
  102700   0.99906099   0.50403907            0    1.5030001    7.5899438 
  102800   0.99228644    0.5109876            0    1.5031748    7.6704322 
  102900    1.0128879   0.50095233            0    1.5137389    7.5878816 
  103000    1.0118934   0.50551975            0    1.5173119    7.6006897 
  103100   0.98938433   0.50968899            0    1.4989744    7.6503085 
  103200   0.97704304   0.51289376            0    1.4898391     7.647656 
  103300   0.99523521   0.50783062            0    1.5029663    7.6162857 
  103400    1.0139242   0.50830485            0    1.5221277    7.6340818 
  103500    1.0084924   0.50868013            0    1.5170716    7.6499805 
  103600    1.0036765   0.50792229            0    1.5114984    7.6609888 
  103700    1.0023363   0.50767203            0    1.5099081    7.6266302 
  103800   0.99533801   0.50841431            0    1.5036528    7.6355254 
  103900    0.9901265   0.50647158            0    1.4964991    7.6202681 
  104000   0.99505421   0.50118378            0    1.4961385    7.5378405 
  104100    1.0016388    0.5103252            0    1.5118639    7.6235423 
  104200    0.9982825   0.52267197            0    1.5208546    7.7732914 
  104300    1.0081968   0.51154605            0     1.519642    7.6890704 
  104400   0.98058731   0.51602208            0    1.4965113    7.6828875 
  104500   0.98906544   0.50262942            0     1.491596    7.5764334 
  104600   0.99505621   0.50971204            0    1.5046687    7.6542121 
  104700    1.0232863   0.50493214            0    1.5281161    7.6348201 
  104800    1.0074036   0.51313298            0    1.5204358    7.6890417 
  104900   0.99095515   0.49452374            0    1.4853798    7.5097106 
  105000   0.99008731   0.50558101            0    1.4955693    7.6078189 
  105100    1.0009281   0.51734008            0    1.5181681    7.7288527 
  105200    1.0142241   0.51359082            0    1.5277135    7.6938485 
  105300   0.99512425   0.51934515            0    1.5143699     7.753499 
  105400   0.99253752   0.51196644            0    1.5044047    7.6660614 
  105500   0.99302794   0.50468135            0      1.49761     7.606425 
  105600   0.98223178   0.50245684            0    1.4845904    7.5674916 
  105700   0.98339117   0.51776213            0     1.501055    7.7190758 
  105800     1.005988   0.51433529            0    1.5202227    7.7142434 
  105900    1.0141203   0.50940028            0    1.5234192    7.6792624 
  106000   0.99522167   0.51705157            0    1.5121737    7.7318762 
  106100   0.99267078   0.50808386            0    1.5006554    7.6293034 
  106200   0.98511199   0.50571315            0    1.4907266    7.6148376 
  106300   0.99511358    0.5039974            0    1.4990115    7.6047929 
  106400     1.012635   0.50796366            0    1.5204974    7.6543881 
  106500    1.0007003   0.52182628            0    1.5224265    7.7762791 
  106600    1.0039597   0.51171107            0    1.5155704    7.6761668 
  106700   0.98467556   0.50603782            0    1.4906149    7.6037205 
  106800   0.98116431   0.51175728            0    1.4928235    7.6457295 
  106900   0.99541617   0.51265435            0     1.507971    7.6553175 
  107000   0.99594493   0.51471356            0    1.5105589    7.7150687 
  107100    1.0053064   0.51248771            0    1.5176936    7.6816166 
  107200   0.99866916   0.51770605            0    1.5162753     7.733611 
  107300   0.97808261    0.5154474            0    1.4934322    7.6895216 
  107400   0.99694937   0.50155097            0    1.4984006    7.5665975 
  107500    1.0006409   0.51308104            0    1.5136219    7.7105248 
  107600    1.0172529   0.50763618            0    1.5247874     7.641346 
  107700   0.99246068    0.5010552            0    1.4934166    7.5537942 
  107800    0.9854084   0.50212377            0    1.4874336     7.541089 
  107900   0.99444613   0.50672429            0     1.501071    7.6277573 
  108000    1.0032604    0.5135304            0    1.5166905    7.6883434 
  108100    1.0010384   0.51466705            0    1.5156053    7.6997159 
  108200    0.9916154   0.51400581            0     1.505522    7.6658416 
  108300   0.99751171   0.48935188            0    1.4867638    7.4425626 
  108400   0.97334209   0.49219199            0    1.4654367    7.4521888 
  108500    0.9877246    0.4986316            0    1.4862574    7.5225934 
  108600     1.001788   0.50159602            0    1.5032839    7.5519865 
  108700    1.0073672    0.5025196            0    1.5097861    7.5800765 
  108800    1.0052158   0.50061987            0    1.5057352    7.5629132 
  108900   0.98946138   0.49754579            0    1.4869082    7.5122486 
  109000   0.98265707   0.49772511            0    1.4802839    7.5129988 
  109100    0.9980457     0.509814            0    1.5077599    7.6339285 
  109200    1.0096668   0.50472554            0    1.5142913    7.5978191 
  109300   0.99896716   0.51038782            0    1.5092551    7.6409446 
  109400    1.0138042   0.48989756            0    1.5036004    7.4739442 
  109500    0.9868791   0.50021582            0    1.4869962    7.5418935 
  109600   0.99750466   0.49286409            0     1.490269    7.4612887 
  109700    1.0226342   0.49196143            0    1.5144934    7.4989509 
  109800    1.0026308   0.50766404            0    1.5101946    7.6092398 
  109900    0.9920241   0.50829861            0    1.5002235    7.6061901 
  110000   0.99563842   0.50716355            0    1.5027024    7.6004627 
  110100    1.0029298   0.50193079            0    1.5047603     7.565351 
  110200   0.99292198   0.51028008            0    1.5031028    7.6194742 
  110300     1.003456   0.49678725            0    1.5001429    7.5045156 
  110400   0.98661542   0.49807865            0    1.4845954    7.4989341 
  110500   0.98762394   0.49865808            0    1.4861833    7.5212162 
  110600    1.0025564    0.5119091            0    1.5143652    7.6648039 
  110700    1.0171159   0.50080353            0    1.5178178    7.5707971 
[...]
  183600    1.0008838   0.50025248            0    1.5010361    7.5398423 
  183700   0.99573021   0.51113314            0    1.5067638    7.6241308 
  183800    1.0032027   0.50662548            0    1.5097278    7.6018249 
  183900   0.98878916   0.51534443            0    1.5040347    7.6781642 
  184000    1.0007524   0.50186075            0    1.5025131    7.5894357 
  184100    1.0012328   0.50292593            0    1.5040587    7.5712348 
  184200    1.0004132    0.5123402            0    1.5126534    7.6557409 
  184300    1.0148953   0.50949547            0    1.5242893     7.643537 
  184400    1.0131495   0.49856007            0    1.5116082    7.5372352 
  184500   0.98173016   0.50873744            0    1.4903694    7.6061826 
  184600   0.99301111   0.50666322            0     1.499575    7.6012809 
  184700    1.0099414   0.50260224            0    1.5124426    7.5836288 
  184800   0.99923441   0.51720302            0    1.5163375    7.7155246 
  184900   0.99349986   0.52976826            0    1.5231688    7.8142947 
  185000    1.0254497   0.51487938            0    1.5402265    7.7289646 
  185100    1.0109105   0.51538416            0    1.5261935    7.7221021 
  185200   0.99307123    0.5115874            0    1.5045593    7.6439179 
  185300   0.99675607    0.4998982            0    1.4965546    7.5300769 
  185400   0.98667033   0.50517184            0    1.4917435    7.5658437 
  185500    1.0036437   0.50720499            0    1.5107483    7.6272034 
  185600    1.0181714   0.50731674            0    1.5253864    7.6261301 
  185700    1.0061526   0.50963982            0    1.5156918    7.6369387 
  185800    1.0001646   0.50505904            0    1.5051236    7.6105834 
  185900   0.99886719   0.50444522            0    1.5032125    7.5871248 
  186000    1.0062275    0.4980995            0    1.5042264     7.530742 
  186100   0.98988216   0.49842264            0    1.4882058    7.5214636 
  186200   0.98506874   0.49662128            0    1.4815915    7.5153039 
  186300    1.0038711   0.49743521            0    1.5012059    7.5282819 
  186400    1.0042561   0.50943693            0    1.5135926    7.6440893 
  186500    1.0019494   0.51560058            0    1.5174497    7.6871947 
  186600    1.0082801   0.50749287            0    1.5156722    7.6341603 
  186700   0.98428188    0.5041582            0    1.4883417     7.571866 
  186800   0.99079267   0.49721124            0    1.4879048    7.5126674 
  186900    1.0104437   0.49328051            0    1.5036232     7.490341 
  187000    1.0092602   0.49712583            0    1.5062851    7.5566291 
  187100   0.99736161   0.50405444            0    1.5013163    7.6025091 
  187200   0.98188505   0.50477036            0    1.4865572    7.5564341 
  187300      0.98144   0.50342612            0     1.484768     7.536644 
  187400    1.0059966   0.50162306            0     1.507519    7.5682956 
  187500    1.0061454    0.5098205            0    1.5158652    7.6538683 
  187600   0.99905395   0.51286276            0    1.5118168     7.690992 
  187700   0.99341698   0.50672362            0    1.5000413     7.639349 
  187800   0.98692086   0.51430058            0    1.5011227    7.6690232 
  187900    1.0087715   0.51401639            0    1.5226871    7.6842058 
  188000    1.0077973   0.51019664            0    1.5178931    7.6415403 
  188100    0.9977562   0.50687452            0    1.5045309    7.6347828 
  188200    1.0001089    0.4992206            0    1.4992295    7.5538931 
  188300   0.97375334   0.50453574            0    1.4781917    7.5577726 
  188400   0.98920832   0.49144038            0    1.4805498    7.4735288 
  188500    1.0065878   0.49769598            0    1.5041831    7.5318535 
  188600      1.00381   0.50910023            0    1.5128099    7.6374801 
  188700    1.0019014   0.51483072            0    1.5166319     7.715489 
  188800    1.0051746   0.51521212            0    1.5202862    7.7066164 
  188900   0.98783605   0.51887828            0    1.5066155    7.7076218 
  189000   0.99382537   0.50251769            0    1.4962437    7.5835667 
  189100   0.99720359   0.50987342            0    1.5069773    7.6297352 
  189200    1.0194939    0.5072495            0    1.5266415    7.6279421 
  189300   0.99749531   0.52135815            0    1.5187537    7.7524784 
  189400   0.99638945   0.50947542            0    1.5057652    7.6422989 
  189500    0.9813147   0.49678779            0    1.4780044    7.5119734 
  189600   0.98081479   0.48584426            0     1.466561    7.4171385 
  189700   0.99493655   0.49349384            0    1.4883309    7.5024955 
  189800    0.9935602   0.51594448            0    1.5094053     7.678573 
  189900    1.0135216   0.50714646            0    1.5205667     7.615567 
  190000    1.0019737   0.50175763            0    1.5036311    7.5638246 
  190100   0.99128188   0.50147892            0    1.4926617    7.5635251 
  190200   0.99968077   0.50336933            0    1.5029501    7.5721185 
  190300   0.99994732   0.51407519            0    1.5139225    7.6805046 
  190400    1.0105261    0.5094826            0    1.5199076    7.6325704 
  190500   0.98983226   0.50464047            0    1.4943737    7.5741482 
  190600   0.97979732   0.50331621            0    1.4830155    7.5709606 
  190700   0.99434575   0.50754602            0    1.5017923    7.6316143 
  190800    1.0135796   0.50278185            0    1.5162601     7.597726 
  190900    1.0032981   0.51172994            0    1.5149278    7.6632777 
  191000   0.99860346   0.51284388            0    1.5113475    7.6599142 
  191100   0.99714128   0.49951914            0    1.4965607    7.5389863 
  191200   0.99540563   0.48873664            0    1.4840427    7.4359792 
  191300   0.98940339   0.50633216            0    1.4956366    7.5883444 
  191400    1.0112948   0.50353758            0    1.5147313    7.5758128 
  191500    1.0008781   0.50686186            0    1.5076399     7.597398 
  191600   0.99723291   0.50070806            0    1.4978412    7.5593647 
  191700   0.99423356   0.50189403            0    1.4960282    7.5589043 
  191800    1.0083519   0.50844917            0    1.5167003    7.6300562 
  191900    1.0085384   0.52368033            0    1.5321179    7.7798995 
  192000    1.0103762   0.51207341            0    1.5223486    7.6704273 
  192100   0.99673572   0.51019771            0    1.5068338    7.6439771 
  192200   0.99814006   0.50719277            0     1.505233    7.6129044 
  192300   0.99532015   0.51762378            0    1.5128444    7.7156289 
  192400    1.0054677   0.51939366            0    1.5247608     7.727807 
  192500    1.0001105   0.51521292            0    1.5152234    7.7127846 
  192600   0.99930664   0.51064019            0    1.5098469    7.6713661 
  192700    1.0041874   0.50721349            0    1.5113005    7.6357564 
  192800    0.9926889   0.51808032            0    1.5106699    7.6917765 
  192900    1.0085656   0.50506112            0    1.5135258     7.598502 
  193000   0.99569082   0.50651369            0    1.5021049    7.5839147 
  193100   0.98285063   0.50307096            0    1.4858233    7.5485621 
  193200   0.99082884   0.50757737            0    1.4983071    7.6167274 
  193300    1.0124486   0.50246055            0    1.5148079    7.5902559 
  193400     1.000227   0.51246106            0     1.512588     7.652405 
  193500   0.99129175   0.51559489            0    1.5067875    7.6629644 
  193600   0.98902887   0.50778132            0    1.4967113    7.6069678 
  193700    0.9907337   0.50303272            0    1.4936673    7.5625028 
  193800    1.0079161   0.51058332            0    1.5183986    7.6653165 
  193900    1.0100413   0.51470266            0     1.524643    7.6919746 
  194000    1.0071799   0.50500313            0    1.5120823    7.6038571 
  194100   0.98943217   0.50969247            0    1.4990257    7.6377535 
  194200   0.99462687   0.50767472            0    1.5022021    7.6231116 
  194300    1.0018838   0.50535647            0    1.5071401    7.6026305 
  194400   0.99577247   0.51518846            0    1.5108614    7.6777817 
  194500    1.0133135   0.51498415            0    1.5281963    7.6993326 
  194600    1.0181161   0.52626744            0    1.5442818    7.8304852 
  194700    1.0020212   0.51775143            0    1.5196725    7.7088064 
  194800   0.99630454   0.51306444            0    1.5092693     7.668812 
  194900   0.99895803   0.50822768            0    1.5070858    7.6209403 
  195000    1.0032405   0.50567699            0    1.5088172    7.6220651 
  195100    0.9953974   0.51563822            0    1.5109361    7.6956434 
  195200    1.0119964   0.51133247            0    1.5232277    7.6763645 
  195300    1.0079154   0.51764129            0    1.5254559     7.741613 
  195400   0.99610777    0.5122623            0    1.5082705    7.6481504 
  195500   0.98693533   0.50908341            0      1.49592     7.612734 
  195600   0.99946505   0.50652415            0    1.5058893    7.6219086 
  195700    1.0161783   0.51194421            0    1.5280209    7.6767219 
  195800     1.010639   0.51801979            0    1.5285577    7.7263026 
  195900   0.99363861   0.50739647            0    1.5009357    7.6165978 
  196000   0.98798496   0.51309031            0    1.5009765    7.6743985 
  196100     1.012335   0.50948849            0    1.5217222    7.6532316 
  196200    1.0043335   0.51868389            0     1.522917    7.7165555 
  196300   0.99402292   0.51287194            0    1.5067955    7.6614568 
  196400   0.99800971   0.50416438            0    1.5020743    7.5709067 
  196500   0.99757545   0.50763327            0     1.505109    7.5984354 
  196600    1.0080559   0.50520179            0    1.5131569    7.5958035 
  196700    1.0056525   0.51440565            0    1.5199576    7.6925341 
  196800    1.0162699   0.50098736            0    1.5171556     7.569467 
  196900   0.98627025   0.50937528            0    1.4955469    7.6149408 
  197000    0.9988132   0.50146773            0    1.5001811    7.5501869 
  197100      1.00664   0.50684322            0    1.5133826    7.6384999 
  197200    1.0027421   0.51941169            0    1.5220535    7.7446999 
  197300     1.013028   0.49960979            0    1.5125365    7.5772108 
  197400   0.96863813   0.51757293            0    1.4861142    7.6790768 
  197500   0.99543435   0.51031198            0    1.5056468    7.6389159 
  197600    1.0027128   0.51307172            0    1.5156842    7.6705119 
  197700    1.0104543     0.502249            0    1.5126023    7.5750567 
  197800   0.98266829   0.51422152            0    1.4967915    7.6697893 
  197900   0.99760747   0.49803727            0     1.495545    7.5423534 
  198000    1.0051498   0.50793846            0    1.5129877    7.6395817 
  198100    1.0177207   0.50908699            0    1.5267059    7.6410066 
  198200    1.0015558    0.5117325            0    1.5131881    7.6510511 
  198300   0.98977616   0.50859992            0    1.4982771     7.623471 
  198400   0.99851839    0.5044552            0    1.5028737    7.6006085 
  198500    1.0027046   0.50505924            0    1.5076636    7.6065819 
  198600    1.0010095   0.50822095            0    1.5091304    7.6535411 
  198700     1.004318   0.50970283            0    1.5139204    7.6574499 
  198800    1.0099746   0.51541939            0     1.525293    7.6962923 
  198900    1.0115205   0.51311097            0    1.5245303    7.6815394 
  199000    1.0020046   0.50370909            0    1.5056134     7.598246 
  199100   0.99696706   0.50008396            0    1.4969513    7.5299439 
  199200    0.9848907   0.51830563            0    1.5030978    7.7051468 
  199300    1.0088399   0.51883314            0    1.5275722    7.7304528 
  199400   0.99790006   0.52089877            0     1.518699    7.7542679 
  199500   0.99184305   0.51231026            0    1.5040541    7.6499353 
  199600    0.9938458   0.51006149            0    1.5038079    7.6388542 
  199700    1.0042193   0.51427134            0    1.5183902    7.6917795 
  199800    1.0092943   0.52489617            0    1.5340896    7.7965599 
  199900     1.031115   0.50801414            0    1.5390261    7.6627724 
  200000     1.001085   0.50667293            0    1.5076578    7.6316281 
  200100   0.98657741   0.51387697            0    1.5003557    7.6635398 
  200200    1.0020285   0.50988942            0    1.5118177    7.6612839 
  200300    1.0238786   0.50385181            0     1.527628    7.6276095 
  200400     1.010707    0.5094731            0     1.520079    7.6544634 
  200500   0.99337995   0.50573067            0    1.4990113    7.5855171 
  200600   0.99306372   0.50603465            0    1.4989991    7.5985539 
  200700    1.0002551   0.50920198            0     1.509357    7.6255068 
  200800    1.0088915   0.50685549            0    1.5156461    7.6062926 
  200900   0.99917314   0.50505529            0    1.5041285     7.580198 
  201000   0.98421024   0.50224536            0    1.4863572     7.546991 
  201100   0.99223023   0.50009494            0    1.4922259    7.5421796 
  201200    0.9992189   0.50180564            0    1.5009246    7.5685354 
  201300   0.99625183   0.51334097            0    1.5094932      7.69152 
  201400    1.0004817   0.52021327            0    1.5205949    7.7343445 
  201500    1.0139669   0.50280698            0    1.5166725    7.5873602 
  201600    0.9906513   0.50117742            0    1.4917297    7.5542404 
  201700   0.99278527   0.50375027            0    1.4964363    7.5785231 
  201800   0.99035816   0.51658258            0    1.5068417    7.6836763 
  201900   0.99751061   0.51878075            0    1.5161916    7.7012107 
  202000    1.0071384   0.51184254            0    1.5188803     7.665131 
  202100   0.98712013    0.5055098            0    1.4925312    7.5888322 
  202200   0.98930648   0.49893575            0    1.4881433    7.5034627 
  202300    0.9943669   0.50577966            0    1.5000471     7.577476 
  202400    1.0001117   0.50881632            0     1.508828     7.618365 
  202500   0.99804153   0.51368386            0    1.5116256    7.6914604 
  202600    1.0038794   0.51209872            0    1.5158777    7.6594603 
  202700    1.0111022   0.50329892            0       1.5143    7.6071154 
  202800   0.98997833   0.52075394            0    1.5106333    7.7302867 
  202900    1.0103233    0.5071546            0    1.5173768    7.6376907 
  203000     1.009321   0.50932509            0    1.5185452    7.6331303 
  203100   0.98903003   0.50563083            0     1.494562    7.5930594 
  203200   0.99202976   0.49553069            0    1.4874612    7.4916645 
  203300   0.99025284     0.505198            0    1.4953518    7.5644926 
  203400   0.99893404   0.51719207            0    1.5160262    7.6890928 
  203500    1.0053088    0.5127828            0    1.5179911    7.6573533 
  203600   0.99870156   0.50460804            0    1.5032097    7.6128302 
  203700   0.99126691   0.51017484            0    1.5013426    7.6342385 
  203800     1.003143    0.5058575            0    1.5089002    7.6056044 
  203900    1.0066507   0.50435261            0    1.5109026    7.5716269 
  204000   0.98834675   0.50575081            0    1.4939987    7.5905552 
  204100   0.99468964   0.50308813            0    1.4976783    7.5680681 
  204200    1.0105517    0.5031379            0    1.5135886    7.6000433 
  204300    1.0009336   0.51226685            0    1.5131003      7.66814 
  204400   0.99874483   0.51081776            0    1.5094627    7.6611031 
  204500    1.0071892   0.50265493            0    1.5097434    7.5757404 
  204600    1.0059587   0.49936968            0    1.5052277    7.5553375 
  204700   0.98398945   0.50125104            0    1.4851421    7.5625043 
  204800   0.98831098   0.50384193            0    1.4920541    7.5769201 
  204900    1.0120535   0.50099142            0    1.5129437    7.5706502 
  205000     1.002388   0.50785042            0    1.5101382    7.6202421 
  205100    1.0020576   0.50530569            0    1.5072631    7.6474274 
  205200    1.0003301   0.51671992            0    1.5169499     7.727097 
  205300    1.0173389   0.51424552            0    1.5314827    7.7052197 
  205400    1.0033265   0.50891651            0    1.5121427    7.6286513 
  205500    1.0053242   0.49614579            0    1.5013695    7.5288115 
  205600   0.99575287   0.50475815            0    1.5004114    7.5808194 
  205700    1.0026739   0.50175363            0    1.5043272    7.5790154 
  205800    1.0211516   0.50030545            0    1.5213549    7.5752382 
  205900     1.033516   0.50399771            0    1.5374104    7.6224167 
  206000   0.99090698   0.52259494            0    1.5134028    7.7682756 
  206100    1.0002328   0.50818462            0    1.5083174    7.6272919 
  206200     1.005993   0.50072456            0     1.506617    7.5516402 
  206300   0.98910978   0.50801519            0    1.4970261    7.5952097 
  206400   0.97333144   0.51581018            0    1.4890443    7.6603548 
  206500    1.0006508   0.50923407            0    1.5097848    7.6348942 
  206600    1.0117926   0.51337834            0    1.5250697    7.6924473 
  206700    1.0074143   0.51232405            0    1.5196376    7.6601575 
  206800   0.98985407   0.51620883            0    1.5059639    7.7140652 
  206900   0.99584822   0.51345525            0    1.5092039    7.6718075 
  207000    1.0138562   0.51757302            0    1.5313278    7.7370667 
  207100    1.0147293   0.51471209            0    1.5293399    7.7153438 
  207200    1.0034385   0.50431168            0    1.5076498     7.605917 
  207300     1.002333   0.49718313            0    1.4994159    7.5309655 
  207400   0.99066642   0.50756001            0    1.4981274    7.6104951 
  207500   0.99555893   0.51920558            0     1.514665    7.7394583 
  207600    1.0239047    0.5115135            0    1.5353158     7.686069 
  207700    1.0110275   0.50744108            0    1.5183675    7.6240293 
  207800   0.99419561   0.50610604            0    1.5002022    7.5998533 
  207900    0.9962546   0.50468493            0    1.5008399    7.5748259 
  208000   0.99904225   0.51610451            0    1.5150469    7.7033166 
  208100    1.0096244   0.51905794            0    1.5285814    7.7581991 
  208200    1.0185475   0.50209289            0    1.5205385    7.5967002 
  208300   0.99486966   0.49679867            0    1.4915688    7.5110796 
  208400   0.98460381    0.5110218            0    1.4955272    7.6319238 
  208500    1.0085049   0.50544458            0    1.5138486    7.6079788 
  208600   0.99715237   0.51940774            0    1.5164604    7.7429804 
  208697    1.0008213   0.51601689            0    1.5167381    7.7171394 
Loop time of 91.3484 on 16 procs for 200000 steps with 10000 atoms

Performance: 189165.887 tau/day, 2189.420 timesteps/s
88.2% CPU use with 16 MPI tasks x no OpenMP threads

MPI task timing breakdown:
Section |  min time  |  avg time  |  max time  |%varavg| %total
---------------------------------------------------------------
Pair    | 53.972     | 65.398     | 74.378     |  71.4 | 71.59
Neigh   | 0.70564    | 0.78559    | 0.8435     |   4.2 |  0.86
Comm    | 7.7069     | 14.825     | 22.732     | 113.2 | 16.23
Output  | 0.46514    | 0.46743    | 0.48843    |   0.8 |  0.51
Modify  | 6.5152     | 8.4011     | 12.801     |  72.2 |  9.20
Other   |            | 1.471      |            |       |  1.61

Nlocal:    625 ave 634 max 613 min
Histogram: 1 0 0 2 1 4 5 2 0 1
Nghost:    136.188 ave 143 max 128 min
Histogram: 1 0 3 0 4 1 0 2 3 2
Neighs:    1581.25 ave 1635 max 1505 min
Histogram: 1 0 0 0 3 4 3 3 1 1

Total # of neighbors = 25300
Ave neighs/atom = 2.53
Neighbor list builds = 5929
Dangerous builds = 0

Total wall time: 0:01:36
